
FAST Summary File

Predictions were generated on 24-Jan-2022 at 16:44:22 using FAST (v8.16.00a-bjj, 27-Jul-2016), compiled as a DLL S-Function for Simulink as a 64-bit application using single precision
  compiled with
    NWTC Subroutine Library (v2.09.00, 23-Jul-2016)
    ElastoDyn (v1.04.00a-bjj, 26-Jul-2016)
    BeamDyn (unknown version, unknown date) [not called]
    InflowWind (v3.03.00, 26-Jul-2016)
    AeroDyn14 (v14.05.01a-bjj, 25-Jul-2016)
    AeroDyn (unknown version, unknown date) [not called]
    ServoDyn (v1.06.00a-bjj, 26-Jul-2016)
    HydroDyn (unknown version, unknown date) [not called]
    SubDyn (unknown version, unknown date) [not called]
    MAP (unknown version, unknown date) [not called]
    FEAMooring (unknown version, unknown date) [not called]
    MoorDyn (unknown version, unknown date) [not called]
    OrcaFlexInterface (unknown version, unknown date) [not called]
    IceFloe (unknown version, unknown date) [not called]
    IceDyn (unknown version, unknown date) [not called]


Modeling a land-based turbine
Description from the FAST input file: 
  FAST Model: CART 3-blades, Operating Point #1, with Region 2.5 Compatible with FAST v6.01.

Interpolation order for input/output time histories: 2 (quadratic)
Number of correction iterations:  0


   Requested Time Steps  
  -------------------------------------------------
  Component          Time Step (s)    Subcycles (-)
  -----------------  ---------------  -------------
  FAST (glue code)    2.500E-03
  InflowWind          2.500E-03              1
  ElastoDyn           2.500E-03              1
  AeroDyn14           2.500E-03              1
  ServoDyn            2.500E-03              1
  FAST output files   2.500E-03              1


   Requested Channels in FAST Output File(s)  
  --------------------------------------------
  Number  Name        Units       Generated by
  ------  ----------  ----------  ------------
       1  Time        (s)         FAST
       2  Wind1VelX   (m/s)       InflowWind
       3  Wind1VelY   (m/s)       InflowWind
       4  Wind1VelZ   (m/s)       InflowWind
       5  LSSGagVxa   (rpm)       ElastoDyn
       6  LSSGagAxa   (deg/s^2)   ElastoDyn
       7  RotSpeed    (rpm)       ElastoDyn
       8  HSShftTq    (kN·m)      ElastoDyn
       9  LSShftTq    (kN·m)      ElastoDyn
      10  GenSpeed    (rpm)       ElastoDyn
      11  NcIMUTAys   (m/s^2)     ElastoDyn
      12  PtchPMzc1   (deg)       ElastoDyn
      13  PtchPMzc2   (deg)       ElastoDyn
      14  PtchPMzc3   (deg)       ElastoDyn
      15  GenPwr      (kW)        ServoDyn
      16  GenTq       (kN·m)      ServoDyn
